 vasp.4.6.28 25Jul05 complex 
 executed on             LinuxIFC date 2017.02.24  21:38:05
 serial version
